# vtk DataFile Version 2.0
tracks
ASCII
DATASET POLYDATA
POINTS 28 float
0.001 0.05 0.0011 0.5008 0.05 0.0011 1.0006 0.05 0.0011 1.5004 0.05
0.0011 2.0002 0.05 0.0011 2.5 0.05 0.0011 1.31147 0.05 0.0537316
1.54918 0.05 0.0537316 1.78688 0.05 0.0537316 2.02459 0.05 0.0537316 2.62195
0.05 0.106363 3.93242 0.05 0.158995 5.24289 0.05 0.211626 6.55337 0.05
0.264258 7.86384 0.05 0.316889 9.17432 0.05 0.369521 10.4848 0.05 0.422153
11.7953 0.05 0.474784 13.1057 0.05 0.527416 14.4162 0.05 0.580047 15.7267
0.05 0.632679 17.0372 0.05 0.685311 18.3476 0.05 0.737942 19.6581 0.05
0.790574 20.9686 0.05 0.843205 22.2791 0.05 0.895837 23.5895 0.05 0.948468
24.9 0.05 1.0011 
VERTICES 18 36
1 10 1 11 1 12 1 13 1 14 1
15 1 16 1 17 1 18 1 19 1
20 1 21 1 22 1 23 1 24 1
25 1 26 1 27 
LINES 2 12
6 0 1 2 3 4 5 4 6 7 8
9 
POINT_DATA 28
FIELD attributes 4
age 1 28 float
0 0.0181918 0.0410693 0.0716343 0.117668 0.210871 0 0.0359813 0.095511 0.267794 0
0 0 0 0 0 0 0 0 0 0
0 0 0 0 0 0 0 
p 1 28 float
0 0 0 0 0 0 0 0 0 0 0
0 0 0 0 0 0 0 0 0 0
0 0 0 0 0 0 0 
k 1 28 float
0.01 0.01 0.01 0.01 0.01 0.01 0.01 0.01 0.01 0.01 0.01
0.01 0.01 0.01 0.01 0.01 0.01 0.01 0.01 0.01 0.01
0.01 0.01 0.01 0.01 0.01 0.01 0.01 
U 3 28 float
27.4739 0 0 21.8468 0 0 16.352 0 0 10.8573 0
0 5.36251 0 0 0 0 0 6.60636 0 0
3.99305 0 0 1.37974 0 0 0 0 0 0
0 0 0 0 0 0 0 0 0 0
0 0 0 0 0 0 0 0 0 0
0 0 0 0 0 0 0 0 0 0
0 0 0 0 0 0 0 0 0 0
0 0 0 0 0 0 0 0 0 0
0 0 0 
