# Force coefficients
# liftDir       : (0.00000000e+00 0.00000000e+00 1.00000000e+00)
# dragDir       : (1.00000000e+00 0.00000000e+00 0.00000000e+00)
# pitchAxis     : (0.00000000e+00 1.00000000e+00 0.00000000e+00)
# magUInf       : 2.00000000e+01
# lRef          : 2.50000000e-01
# Aref          : 7.50000000e-01
# CofR          : (1.25000000e+01 4.50000000e-01 1.14300000e+00)
# Time          	Cm              	Cd              	Cl              	Cl(f)           	Cl(r)           
0               	0.00000000e+00	0.00000000e+00	0.00000000e+00	0.00000000e+00	0.00000000e+00
